MODEL 1
REMARK VINA RESULT:    -8.728      0.000      0.000
REMARK INTER + INTRA:         -14.492
REMARK INTER:                 -12.811
REMARK INTRA:                  -1.681
REMARK UNBOUND:                -1.681
REMARK  10 active torsions:
REMARK  status: ('A' for Active; 'I' for Inactive)
REMARK    1  A    between atoms: O1_1  and  C31_31 
REMARK    2  A    between atoms: O1_1  and  C21_21 
REMARK    3  A    between atoms: O3_3  and  C41_41 
REMARK    4  A    between atoms: O4_4  and  C43_43 
REMARK    5  A    between atoms: C18_18  and  C25_25 
REMARK    6  A    between atoms: C25_25  and  C28_28 
REMARK    7  A    between atoms: C28_28  and  C30_30 
REMARK    8  A    between atoms: C30_30  and  C32_32 
REMARK    9  A    between atoms: C31_31  and  C33_33 
REMARK   10  A    between atoms: C35_35  and  C38_38 
ROOT
HETATM    1  O1  UNK     0      56.301   9.654 237.284  1.00  0.00    -0.312 OA
ENDROOT
BRANCH   1   2
HETATM    2  C31 UNK     0      57.278  10.092 236.112  1.00  0.00     0.283 C 
HETATM    3  O2  UNK     0      58.479  10.217 236.370  1.00  0.00    -0.260 OA
BRANCH   2   4
HETATM    4  C33 UNK     0      56.813  10.318 234.525  1.00  0.00     0.083 C 
HETATM    5  C35 UNK     0      55.878   9.520 233.882  1.00  0.00     0.017 C 
BRANCH   5   6
HETATM    6  C38 UNK     0      55.225   9.642 232.371  1.00  0.00    -0.033 A 
HETATM    7  C39 UNK     0      55.484  10.729 231.601  1.00  0.00     0.051 A 
HETATM    8  C41 UNK     0      54.928  10.864 230.174  1.00  0.00     0.102 A 
HETATM    9  C43 UNK     0      54.215   9.877 229.645  1.00  0.00     0.099 A 
HETATM   10  C42 UNK     0      53.920   8.681 230.473  1.00  0.00     0.040 A 
HETATM   11  C40 UNK     0      54.389   8.562 231.737  1.00  0.00     0.014 A 
BRANCH   8  12
HETATM   12  O3  UNK     0      55.175  11.998 229.350  1.00  0.00    -0.353 OA
HETATM   13  C44 UNK     0      56.512  12.037 228.860  1.00  0.00     0.210 C 
ENDBRANCH   8  12
BRANCH   9  14
HETATM   14  O4  UNK     0      53.724  10.020 228.308  1.00  0.00    -0.358 OA
HETATM   15  H99 UNK     0      54.267   9.499 227.664  1.00  0.00     0.217 HD
ENDBRANCH   9  14
ENDBRANCH   5   6
ENDBRANCH   2   4
ENDBRANCH   1   2
BRANCH   1  16
HETATM   16  C21 UNK     0      54.648   9.683 237.146  1.00  0.00     0.140 C 
HETATM   17  C17 UNK     0      54.002  11.006 237.892  1.00  0.00    -0.017 C 
HETATM   18  C9  UNK     0      52.329  11.105 237.700  1.00  0.00     0.005 C 
HETATM   19  C27 UNK     0      54.399  10.948 239.392  1.00  0.00     0.018 C 
HETATM   20  C26 UNK     0      54.630  12.276 237.288  1.00  0.00     0.018 C 
HETATM   21  C6  UNK     0      51.575   9.839 238.226  1.00  0.00    -0.027 A 
HETATM   22  C15 UNK     0      51.720  12.372 238.456  1.00  0.00     0.007 C 
HETATM   23  C5  UNK     0      49.943   9.928 238.469  1.00  0.00    -0.027 A 
HETATM   24  C7  UNK     0      51.244   9.759 239.573  1.00  0.00     0.021 A 
HETATM   25  C13 UNK     0      52.217   8.537 237.566  1.00  0.00     0.013 C 
HETATM   26  C8  UNK     0      49.362  11.303 239.013  1.00  0.00     0.004 C 
HETATM   27  C11 UNK     0      49.075   8.722 239.078  1.00  0.00     0.011 C 
HETATM   28  C10 UNK     0      47.725  11.407 238.783  1.00  0.00    -0.032 C 
HETATM   29  C14 UNK     0      50.138  12.485 238.303  1.00  0.00     0.007 C 
HETATM   30  C19 UNK     0      47.013  12.647 239.462  1.00  0.00     0.011 C 
HETATM   31  C23 UNK     0      47.439  11.418 237.248  1.00  0.00     0.016 C 
HETATM   32  C12 UNK     0      46.938  10.232 239.456  1.00  0.00    -0.032 C 
HETATM   33  C22 UNK     0      45.500  12.145 239.832  1.00  0.00     0.006 C 
HETATM   34  C18 UNK     0      45.361  10.715 239.214  1.00  0.00    -0.002 C 
HETATM   35  C16 UNK     0      47.477   8.889 238.811  1.00  0.00     0.011 C 
HETATM   36  C24 UNK     0      47.183  10.199 240.994  1.00  0.00     0.016 C 
HETATM   37  C20 UNK     0      53.860   8.441 237.795  1.00  0.00     0.034 C 
BRANCH  34  38
HETATM   38  C25 UNK     0      44.105   9.840 239.867  1.00  0.00    -0.014 C 
HETATM   39  C29 UNK     0      44.164   8.372 239.396  1.00  0.00     0.010 C 
BRANCH  38  40
HETATM   40  C28 UNK     0      42.644  10.390 239.486  1.00  0.00     0.008 C 
BRANCH  40  41
HETATM   41  C30 UNK     0      42.706  11.275 238.143  1.00  0.00     0.028 C 
BRANCH  41  42
HETATM   42  C32 UNK     0      42.708  10.438 236.839  1.00  0.00    -0.025 C 
HETATM   43  C34 UNK     0      43.469  10.768 235.777  1.00  0.00    -0.091 C 
HETATM   44  C36 UNK     0      43.450   9.912 234.530  1.00  0.00     0.042 C 
HETATM   45  C37 UNK     0      44.350  11.992 235.803  1.00  0.00     0.042 C 
ENDBRANCH  41  42
ENDBRANCH  40  41
ENDBRANCH  38  40
ENDBRANCH  34  38
ENDBRANCH   1  16
TORSDOF 10
ENDMDL
MODEL 2
REMARK VINA RESULT:    -8.672     17.483     21.646
REMARK INTER + INTRA:         -14.409
REMARK INTER:                 -13.480
REMARK INTRA:                  -0.930
REMARK UNBOUND:                -1.681
REMARK  10 active torsions:
REMARK  status: ('A' for Active; 'I' for Inactive)
REMARK    1  A    between atoms: O1_1  and  C31_31 
REMARK    2  A    between atoms: O1_1  and  C21_21 
REMARK    3  A    between atoms: O3_3  and  C41_41 
REMARK    4  A    between atoms: O4_4  and  C43_43 
REMARK    5  A    between atoms: C18_18  and  C25_25 
REMARK    6  A    between atoms: C25_25  and  C28_28 
REMARK    7  A    between atoms: C28_28  and  C30_30 
REMARK    8  A    between atoms: C30_30  and  C32_32 
REMARK    9  A    between atoms: C31_31  and  C33_33 
REMARK   10  A    between atoms: C35_35  and  C38_38 
ROOT
HETATM    1  O1  UNK     0      51.588  20.426 253.766  1.00  0.00    -0.312 OA
ENDROOT
BRANCH   1   2
HETATM    2  C31 UNK     0      52.202  19.005 254.116  1.00  0.00     0.283 C 
HETATM    3  O2  UNK     0      53.401  18.942 254.405  1.00  0.00    -0.260 OA
BRANCH   2   4
HETATM    4  C33 UNK     0      51.323  17.589 254.206  1.00  0.00     0.083 C 
HETATM    5  C35 UNK     0      50.965  16.841 253.094  1.00  0.00     0.017 C 
BRANCH   5   6
HETATM    6  C38 UNK     0      50.194  15.386 252.986  1.00  0.00    -0.033 A 
HETATM    7  C39 UNK     0      49.466  15.078 251.882  1.00  0.00     0.051 A 
HETATM    8  C41 UNK     0      48.765  13.718 251.725  1.00  0.00     0.102 A 
HETATM    9  C43 UNK     0      48.907  12.788 252.662  1.00  0.00     0.099 A 
HETATM   10  C42 UNK     0      49.698  13.106 253.876  1.00  0.00     0.040 A 
HETATM   11  C40 UNK     0      50.303  14.307 254.032  1.00  0.00     0.014 A 
BRANCH   8  12
HETATM   12  O3  UNK     0      47.986  13.375 250.584  1.00  0.00    -0.353 OA
HETATM   13  C44 UNK     0      46.630  13.792 250.702  1.00  0.00     0.210 C 
ENDBRANCH   8  12
BRANCH   9  14
HETATM   14  O4  UNK     0      48.259  11.524 252.483  1.00  0.00    -0.358 OA
HETATM   15  H99 UNK     0      47.349  11.633 252.107  1.00  0.00     0.217 HD
ENDBRANCH   9  14
ENDBRANCH   5   6
ENDBRANCH   2   4
ENDBRANCH   1   2
BRANCH   1  16
HETATM   16  C21 UNK     0      52.467  21.646 253.065  1.00  0.00     0.140 C 
HETATM   17  C17 UNK     0      51.571  23.023 252.906  1.00  0.00    -0.017 C 
HETATM   18  C9  UNK     0      52.462  24.305 252.268  1.00  0.00     0.005 C 
HETATM   19  C27 UNK     0      50.340  22.690 252.018  1.00  0.00     0.018 C 
HETATM   20  C26 UNK     0      51.051  23.443 254.293  1.00  0.00     0.018 C 
HETATM   21  C6  UNK     0      53.097  23.979 250.876  1.00  0.00    -0.027 A 
HETATM   22  C15 UNK     0      51.570  25.617 252.091  1.00  0.00     0.007 C 
HETATM   23  C5  UNK     0      53.664  25.224 249.948  1.00  0.00    -0.027 A 
HETATM   24  C7  UNK     0      52.337  24.160 249.726  1.00  0.00     0.021 A 
HETATM   25  C13 UNK     0      53.923  22.620 250.983  1.00  0.00     0.013 C 
HETATM   26  C8  UNK     0      52.853  26.589 249.989  1.00  0.00     0.004 C 
HETATM   27  C11 UNK     0      54.263  25.021 248.472  1.00  0.00     0.011 C 
HETATM   28  C10 UNK     0      53.751  27.850 249.398  1.00  0.00    -0.032 C 
HETATM   29  C14 UNK     0      52.383  26.843 251.478  1.00  0.00     0.007 C 
HETATM   30  C19 UNK     0      52.978  29.217 249.210  1.00  0.00     0.011 C 
HETATM   31  C23 UNK     0      54.978  28.070 250.340  1.00  0.00     0.016 C 
HETATM   32  C12 UNK     0      54.251  27.609 247.933  1.00  0.00    -0.032 C 
HETATM   33  C22 UNK     0      53.699  29.968 247.948  1.00  0.00     0.006 C 
HETATM   34  C18 UNK     0      54.936  29.088 247.576  1.00  0.00    -0.002 C 
HETATM   35  C16 UNK     0      55.137  26.296 247.959  1.00  0.00     0.011 C 
HETATM   36  C24 UNK     0      53.054  27.404 246.958  1.00  0.00     0.016 C 
HETATM   37  C20 UNK     0      53.017  21.361 251.581  1.00  0.00     0.034 C 
BRANCH  34  38
HETATM   38  C25 UNK     0      55.521  29.394 246.049  1.00  0.00    -0.014 C 
HETATM   39  C29 UNK     0      56.330  28.189 245.526  1.00  0.00     0.010 C 
BRANCH  38  40
HETATM   40  C28 UNK     0      56.486  30.676 245.953  1.00  0.00     0.008 C 
BRANCH  40  41
HETATM   41  C30 UNK     0      56.342  31.384 244.514  1.00  0.00     0.028 C 
BRANCH  41  42
HETATM   42  C32 UNK     0      55.040  32.207 244.347  1.00  0.00    -0.025 C 
HETATM   43  C34 UNK     0      54.007  31.770 243.600  1.00  0.00    -0.091 C 
HETATM   44  C36 UNK     0      52.749  32.600 243.478  1.00  0.00     0.042 C 
HETATM   45  C37 UNK     0      54.079  30.451 242.870  1.00  0.00     0.042 C 
ENDBRANCH  41  42
ENDBRANCH  40  41
ENDBRANCH  38  40
ENDBRANCH  34  38
ENDBRANCH   1  16
TORSDOF 10
ENDMDL
MODEL 3
REMARK VINA RESULT:    -8.572      7.163     12.953
REMARK INTER + INTRA:         -14.262
REMARK INTER:                 -13.330
REMARK INTRA:                  -0.933
REMARK UNBOUND:                -1.681
REMARK  10 active torsions:
REMARK  status: ('A' for Active; 'I' for Inactive)
REMARK    1  A    between atoms: O1_1  and  C31_31 
REMARK    2  A    between atoms: O1_1  and  C21_21 
REMARK    3  A    between atoms: O3_3  and  C41_41 
REMARK    4  A    between atoms: O4_4  and  C43_43 
REMARK    5  A    between atoms: C18_18  and  C25_25 
REMARK    6  A    between atoms: C25_25  and  C28_28 
REMARK    7  A    between atoms: C28_28  and  C30_30 
REMARK    8  A    between atoms: C30_30  and  C32_32 
REMARK    9  A    between atoms: C31_31  and  C33_33 
REMARK   10  A    between atoms: C35_35  and  C38_38 
ROOT
HETATM    1  O1  UNK     0      48.364  17.387 238.967  1.00  0.00    -0.312 OA
ENDROOT
BRANCH   1   2
HETATM    2  C31 UNK     0      48.162  18.939 238.704  1.00  0.00     0.283 C 
HETATM    3  O2  UNK     0      49.127  19.592 238.294  1.00  0.00    -0.260 OA
BRANCH   2   4
HETATM    4  C33 UNK     0      46.710  19.746 238.861  1.00  0.00     0.083 C 
HETATM    5  C35 UNK     0      46.495  20.759 239.784  1.00  0.00     0.017 C 
BRANCH   5   6
HETATM    6  C38 UNK     0      45.180  21.729 240.022  1.00  0.00    -0.033 A 
HETATM    7  C39 UNK     0      44.945  22.777 239.192  1.00  0.00     0.051 A 
HETATM    8  C41 UNK     0      43.712  23.681 239.355  1.00  0.00     0.102 A 
HETATM    9  C43 UNK     0      42.815  23.413 240.296  1.00  0.00     0.099 A 
HETATM   10  C42 UNK     0      43.055  22.272 241.214  1.00  0.00     0.040 A 
HETATM   11  C40 UNK     0      44.148  21.483 241.091  1.00  0.00     0.014 A 
BRANCH   8  12
HETATM   12  O3  UNK     0      43.448  24.792 238.506  1.00  0.00    -0.353 OA
HETATM   13  C44 UNK     0      43.830  26.032 239.094  1.00  0.00     0.210 C 
ENDBRANCH   8  12
BRANCH   9  14
HETATM   14  O4  UNK     0      41.666  24.259 240.415  1.00  0.00    -0.358 OA
HETATM   15  H99 UNK     0      41.034  23.919 241.099  1.00  0.00     0.217 HD
ENDBRANCH   9  14
ENDBRANCH   5   6
ENDBRANCH   2   4
ENDBRANCH   1   2
BRANCH   1  16
HETATM   16  C21 UNK     0      49.711  16.552 238.476  1.00  0.00     0.140 C 
HETATM   17  C17 UNK     0      49.471  14.920 238.550  1.00  0.00    -0.017 C 
HETATM   18  C9  UNK     0      50.797  14.045 237.982  1.00  0.00     0.005 C 
HETATM   19  C27 UNK     0      49.138  14.554 240.022  1.00  0.00     0.018 C 
HETATM   20  C26 UNK     0      48.249  14.555 237.687  1.00  0.00     0.018 C 
HETATM   21  C6  UNK     0      52.122  14.373 238.746  1.00  0.00    -0.027 A 
HETATM   22  C15 UNK     0      50.558  12.471 238.093  1.00  0.00     0.007 C 
HETATM   23  C5  UNK     0      53.408  13.347 238.586  1.00  0.00    -0.027 A 
HETATM   24  C7  UNK     0      52.404  13.703 239.931  1.00  0.00     0.021 A 
HETATM   25  C13 UNK     0      52.351  15.950 238.742  1.00  0.00     0.013 C 
HETATM   26  C8  UNK     0      53.090  11.795 238.472  1.00  0.00     0.004 C 
HETATM   27  C11 UNK     0      54.791  13.536 239.380  1.00  0.00     0.011 C 
HETATM   28  C10 UNK     0      54.384  10.949 237.875  1.00  0.00    -0.032 C 
HETATM   29  C14 UNK     0      51.800  11.617 237.575  1.00  0.00     0.007 C 
HETATM   30  C19 UNK     0      54.248   9.373 237.904  1.00  0.00     0.011 C 
HETATM   31  C23 UNK     0      54.654  11.423 236.412  1.00  0.00     0.016 C 
HETATM   32  C12 UNK     0      55.681  11.133 238.734  1.00  0.00    -0.032 C 
HETATM   33  C22 UNK     0      55.768   8.798 238.093  1.00  0.00     0.006 C 
HETATM   34  C18 UNK     0      56.711  10.042 238.005  1.00  0.00    -0.002 C 
HETATM   35  C16 UNK     0      56.017  12.681 238.736  1.00  0.00     0.011 C 
HETATM   36  C24 UNK     0      55.458  10.652 240.198  1.00  0.00     0.016 C 
HETATM   37  C20 UNK     0      51.047  16.792 239.337  1.00  0.00     0.034 C 
BRANCH  34  38
HETATM   38  C25 UNK     0      58.223   9.763 238.639  1.00  0.00    -0.014 C 
HETATM   39  C29 UNK     0      58.944  11.095 238.931  1.00  0.00     0.010 C 
BRANCH  38  40
HETATM   40  C28 UNK     0      59.196   8.908 237.686  1.00  0.00     0.008 C 
BRANCH  40  41
HETATM   41  C30 UNK     0      58.512   8.673 236.248  1.00  0.00     0.028 C 
BRANCH  41  42
HETATM   42  C32 UNK     0      58.519   9.926 235.337  1.00  0.00    -0.025 C 
HETATM   43  C34 UNK     0      57.567  10.141 234.407  1.00  0.00    -0.091 C 
HETATM   44  C36 UNK     0      57.605  11.387 233.550  1.00  0.00     0.042 C 
HETATM   45  C37 UNK     0      56.448   9.150 234.197  1.00  0.00     0.042 C 
ENDBRANCH  41  42
ENDBRANCH  40  41
ENDBRANCH  38  40
ENDBRANCH  34  38
ENDBRANCH   1  16
TORSDOF 10
ENDMDL
MODEL 4
REMARK VINA RESULT:    -8.520      7.292     13.113
REMARK INTER + INTRA:         -14.185
REMARK INTER:                 -13.061
REMARK INTRA:                  -1.124
REMARK UNBOUND:                -1.681
REMARK  10 active torsions:
REMARK  status: ('A' for Active; 'I' for Inactive)
REMARK    1  A    between atoms: O1_1  and  C31_31 
REMARK    2  A    between atoms: O1_1  and  C21_21 
REMARK    3  A    between atoms: O3_3  and  C41_41 
REMARK    4  A    between atoms: O4_4  and  C43_43 
REMARK    5  A    between atoms: C18_18  and  C25_25 
REMARK    6  A    between atoms: C25_25  and  C28_28 
REMARK    7  A    between atoms: C28_28  and  C30_30 
REMARK    8  A    between atoms: C30_30  and  C32_32 
REMARK    9  A    between atoms: C31_31  and  C33_33 
REMARK   10  A    between atoms: C35_35  and  C38_38 
ROOT
HETATM    1  O1  UNK     0      48.516  17.390 238.989  1.00  0.00    -0.312 OA
ENDROOT
BRANCH   1   2
HETATM    2  C31 UNK     0      48.343  18.940 238.696  1.00  0.00     0.283 C 
HETATM    3  O2  UNK     0      49.328  19.574 238.306  1.00  0.00    -0.260 OA
BRANCH   2   4
HETATM    4  C33 UNK     0      46.897  19.768 238.795  1.00  0.00     0.083 C 
HETATM    5  C35 UNK     0      46.600  20.667 239.809  1.00  0.00     0.017 C 
BRANCH   5   6
HETATM    6  C38 UNK     0      45.285  21.641 240.023  1.00  0.00    -0.033 A 
HETATM    7  C39 UNK     0      45.032  22.649 239.150  1.00  0.00     0.051 A 
HETATM    8  C41 UNK     0      43.797  23.555 239.291  1.00  0.00     0.102 A 
HETATM    9  C43 UNK     0      42.917  23.328 240.258  1.00  0.00     0.099 A 
HETATM   10  C42 UNK     0      43.177  22.231 241.223  1.00  0.00     0.040 A 
HETATM   11  C40 UNK     0      44.270  21.441 241.118  1.00  0.00     0.014 A 
BRANCH   8  12
HETATM   12  O3  UNK     0      43.515  24.625 238.396  1.00  0.00    -0.353 OA
HETATM   13  C44 UNK     0      43.648  25.903 239.012  1.00  0.00     0.210 C 
ENDBRANCH   8  12
BRANCH   9  14
HETATM   14  O4  UNK     0      41.767  24.174 240.356  1.00  0.00    -0.358 OA
HETATM   15  H99 UNK     0      40.929  23.646 240.395  1.00  0.00     0.217 HD
ENDBRANCH   9  14
ENDBRANCH   5   6
ENDBRANCH   2   4
ENDBRANCH   1   2
BRANCH   1  16
HETATM   16  C21 UNK     0      49.823  16.509 238.471  1.00  0.00     0.140 C 
HETATM   17  C17 UNK     0      49.536  14.887 238.569  1.00  0.00    -0.017 C 
HETATM   18  C9  UNK     0      50.818  13.965 237.974  1.00  0.00     0.005 C 
HETATM   19  C27 UNK     0      49.233  14.545 240.053  1.00  0.00     0.018 C 
HETATM   20  C26 UNK     0      48.280  14.551 237.743  1.00  0.00     0.018 C 
HETATM   21  C6  UNK     0      52.173  14.260 238.697  1.00  0.00    -0.027 A 
HETATM   22  C15 UNK     0      50.534  12.400 238.107  1.00  0.00     0.007 C 
HETATM   23  C5  UNK     0      53.422  13.194 238.512  1.00  0.00    -0.027 A 
HETATM   24  C7  UNK     0      52.468  13.593 239.880  1.00  0.00     0.021 A 
HETATM   25  C13 UNK     0      52.450  15.829 238.670  1.00  0.00     0.013 C 
HETATM   26  C8  UNK     0      53.055  11.651 238.424  1.00  0.00     0.004 C 
HETATM   27  C11 UNK     0      54.832  13.348 239.266  1.00  0.00     0.011 C 
HETATM   28  C10 UNK     0      54.305  10.760 237.800  1.00  0.00    -0.032 C 
HETATM   29  C14 UNK     0      51.735  11.504 237.564  1.00  0.00     0.007 C 
HETATM   30  C19 UNK     0      54.122   9.189 237.849  1.00  0.00     0.011 C 
HETATM   31  C23 UNK     0      54.548  11.212 236.325  1.00  0.00     0.016 C 
HETATM   32  C12 UNK     0      55.631  10.912 238.621  1.00  0.00    -0.032 C 
HETATM   33  C22 UNK     0      55.628   8.569 238.002  1.00  0.00     0.006 C 
HETATM   34  C18 UNK     0      56.606   9.783 237.875  1.00  0.00    -0.002 C 
HETATM   35  C16 UNK     0      56.014  12.449 238.598  1.00  0.00     0.011 C 
HETATM   36  C24 UNK     0      55.433  10.453 240.096  1.00  0.00     0.016 C 
HETATM   37  C20 UNK     0      51.190  16.717 239.292  1.00  0.00     0.034 C 
BRANCH  34  38
HETATM   38  C25 UNK     0      58.126   9.464 238.471  1.00  0.00    -0.014 C 
HETATM   39  C29 UNK     0      59.196   9.711 237.388  1.00  0.00     0.010 C 
BRANCH  38  40
HETATM   40  C28 UNK     0      58.333   7.957 238.991  1.00  0.00     0.008 C 
BRANCH  40  41
HETATM   41  C30 UNK     0      59.090   7.949 240.411  1.00  0.00     0.028 C 
BRANCH  41  42
HETATM   42  C32 UNK     0      59.143   9.335 241.102  1.00  0.00    -0.025 C 
HETATM   43  C34 UNK     0      58.367   9.639 242.161  1.00  0.00    -0.091 C 
HETATM   44  C36 UNK     0      58.464  10.999 242.813  1.00  0.00     0.042 C 
HETATM   45  C37 UNK     0      57.386   8.636 242.717  1.00  0.00     0.042 C 
ENDBRANCH  41  42
ENDBRANCH  40  41
ENDBRANCH  38  40
ENDBRANCH  34  38
ENDBRANCH   1  16
TORSDOF 10
ENDMDL
MODEL 5
REMARK VINA RESULT:    -8.409     19.606     22.056
REMARK INTER + INTRA:         -14.022
REMARK INTER:                 -12.268
REMARK INTRA:                  -1.754
REMARK UNBOUND:                -1.681
REMARK  10 active torsions:
REMARK  status: ('A' for Active; 'I' for Inactive)
REMARK    1  A    between atoms: O1_1  and  C31_31 
REMARK    2  A    between atoms: O1_1  and  C21_21 
REMARK    3  A    between atoms: O3_3  and  C41_41 
REMARK    4  A    between atoms: O4_4  and  C43_43 
REMARK    5  A    between atoms: C18_18  and  C25_25 
REMARK    6  A    between atoms: C25_25  and  C28_28 
REMARK    7  A    between atoms: C28_28  and  C30_30 
REMARK    8  A    between atoms: C30_30  and  C32_32 
REMARK    9  A    between atoms: C31_31  and  C33_33 
REMARK   10  A    between atoms: C35_35  and  C38_38 
ROOT
HETATM    1  O1  UNK     0      55.822  34.644 243.218  1.00  0.00    -0.312 OA
ENDROOT
BRANCH   1   2
HETATM    2  C31 UNK     0      57.033  35.265 242.402  1.00  0.00     0.283 C 
HETATM    3  O2  UNK     0      57.724  36.130 242.949  1.00  0.00    -0.260 OA
BRANCH   2   4
HETATM    4  C33 UNK     0      57.501  34.771 240.877  1.00  0.00     0.083 C 
HETATM    5  C35 UNK     0      57.800  33.454 240.559  1.00  0.00     0.017 C 
BRANCH   5   6
HETATM    6  C38 UNK     0      58.180  32.764 239.109  1.00  0.00    -0.033 A 
HETATM    7  C39 UNK     0      57.757  31.507 238.819  1.00  0.00     0.051 A 
HETATM    8  C41 UNK     0      58.056  30.842 237.465  1.00  0.00     0.102 A 
HETATM    9  C43 UNK     0      58.700  31.519 236.522  1.00  0.00     0.099 A 
HETATM   10  C42 UNK     0      59.171  32.895 236.821  1.00  0.00     0.040 A 
HETATM   11  C40 UNK     0      58.930  33.481 238.017  1.00  0.00     0.014 A 
BRANCH   8  12
HETATM   12  O3  UNK     0      57.634  29.522 237.141  1.00  0.00    -0.353 OA
HETATM   13  C44 UNK     0      57.368  28.733 238.296  1.00  0.00     0.210 C 
ENDBRANCH   8  12
BRANCH   9  14
HETATM   14  O4  UNK     0      58.949  30.884 235.265  1.00  0.00    -0.358 OA
HETATM   15  H99 UNK     0      58.146  30.899 234.684  1.00  0.00     0.217 HD
ENDBRANCH   9  14
ENDBRANCH   5   6
ENDBRANCH   2   4
ENDBRANCH   1   2
BRANCH   1  16
HETATM   16  C21 UNK     0      55.960  33.279 244.150  1.00  0.00     0.140 C 
HETATM   17  C17 UNK     0      54.782  32.180 243.793  1.00  0.00    -0.017 C 
HETATM   18  C9  UNK     0      54.944  30.749 244.670  1.00  0.00     0.005 C 
HETATM   19  C27 UNK     0      53.407  32.853 244.055  1.00  0.00     0.018 C 
HETATM   20  C26 UNK     0      54.859  31.836 242.294  1.00  0.00     0.018 C 
HETATM   21  C6  UNK     0      54.941  30.973 246.218  1.00  0.00    -0.027 A 
HETATM   22  C15 UNK     0      53.778  29.713 244.335  1.00  0.00     0.007 C 
HETATM   23  C5  UNK     0      54.703  29.674 247.211  1.00  0.00    -0.027 A 
HETATM   24  C7  UNK     0      53.725  31.045 246.889  1.00  0.00     0.021 A 
HETATM   25  C13 UNK     0      56.031  32.076 246.589  1.00  0.00     0.013 C 
HETATM   26  C8  UNK     0      53.692  28.554 246.714  1.00  0.00     0.004 C 
HETATM   27  C11 UNK     0      54.601  29.792 248.809  1.00  0.00     0.011 C 
HETATM   28  C10 UNK     0      53.887  27.139 247.554  1.00  0.00    -0.032 C 
HETATM   29  C14 UNK     0      53.898  28.354 245.159  1.00  0.00     0.007 C 
HETATM   30  C19 UNK     0      52.803  26.021 247.278  1.00  0.00     0.011 C 
HETATM   31  C23 UNK     0      55.310  26.574 247.250  1.00  0.00     0.016 C 
HETATM   32  C12 UNK     0      53.714  27.319 249.101  1.00  0.00    -0.032 C 
HETATM   33  C22 UNK     0      52.668  25.176 248.673  1.00  0.00     0.006 C 
HETATM   34  C18 UNK     0      53.777  25.736 249.622  1.00  0.00    -0.002 C 
HETATM   35  C16 UNK     0      54.807  28.366 249.568  1.00  0.00     0.011 C 
HETATM   36  C24 UNK     0      52.297  27.865 249.447  1.00  0.00     0.016 C 
HETATM   37  C20 UNK     0      55.833  33.490 245.739  1.00  0.00     0.034 C 
BRANCH  34  38
HETATM   38  C25 UNK     0      53.516  25.368 251.223  1.00  0.00    -0.014 C 
HETATM   39  C29 UNK     0      54.568  24.359 251.727  1.00  0.00     0.010 C 
BRANCH  38  40
HETATM   40  C28 UNK     0      52.074  24.727 251.530  1.00  0.00     0.008 C 
BRANCH  40  41
HETATM   41  C30 UNK     0      52.201  23.140 251.767  1.00  0.00     0.028 C 
BRANCH  41  42
HETATM   42  C32 UNK     0      51.608  22.285 250.619  1.00  0.00    -0.025 C 
HETATM   43  C34 UNK     0      50.348  21.806 250.660  1.00  0.00    -0.091 C 
HETATM   44  C36 UNK     0      49.806  20.988 249.509  1.00  0.00     0.042 C 
HETATM   45  C37 UNK     0      49.455  22.071 251.847  1.00  0.00     0.042 C 
ENDBRANCH  41  42
ENDBRANCH  40  41
ENDBRANCH  38  40
ENDBRANCH  34  38
ENDBRANCH   1  16
TORSDOF 10
ENDMDL
MODEL 6
REMARK VINA RESULT:    -8.325     18.737     21.123
REMARK INTER + INTRA:         -13.900
REMARK INTER:                 -12.227
REMARK INTRA:                  -1.674
REMARK UNBOUND:                -1.681
REMARK  10 active torsions:
REMARK  status: ('A' for Active; 'I' for Inactive)
REMARK    1  A    between atoms: O1_1  and  C31_31 
REMARK    2  A    between atoms: O1_1  and  C21_21 
REMARK    3  A    between atoms: O3_3  and  C41_41 
REMARK    4  A    between atoms: O4_4  and  C43_43 
REMARK    5  A    between atoms: C18_18  and  C25_25 
REMARK    6  A    between atoms: C25_25  and  C28_28 
REMARK    7  A    between atoms: C28_28  and  C30_30 
REMARK    8  A    between atoms: C30_30  and  C32_32 
REMARK    9  A    between atoms: C31_31  and  C33_33 
REMARK   10  A    between atoms: C35_35  and  C38_38 
ROOT
HETATM    1  O1  UNK     0      55.348  31.868 243.970  1.00  0.00    -0.312 OA
ENDROOT
BRANCH   1   2
HETATM    2  C31 UNK     0      56.615  32.744 243.589  1.00  0.00     0.283 C 
HETATM    3  O2  UNK     0      57.196  33.355 244.492  1.00  0.00    -0.260 OA
BRANCH   2   4
HETATM    4  C33 UNK     0      57.278  32.838 242.060  1.00  0.00     0.083 C 
HETATM    5  C35 UNK     0      57.236  31.797 241.144  1.00  0.00     0.017 C 
BRANCH   5   6
HETATM    6  C38 UNK     0      57.740  31.732 239.574  1.00  0.00    -0.033 A 
HETATM    7  C39 UNK     0      57.968  30.533 238.979  1.00  0.00     0.051 A 
HETATM    8  C41 UNK     0      58.401  30.427 237.507  1.00  0.00     0.102 A 
HETATM    9  C43 UNK     0      58.510  31.525 236.768  1.00  0.00     0.099 A 
HETATM   10  C42 UNK     0      58.266  32.844 237.402  1.00  0.00     0.040 A 
HETATM   11  C40 UNK     0      57.904  32.949 238.702  1.00  0.00     0.014 A 
BRANCH   8  12
HETATM   12  O3  UNK     0      58.658  29.184 236.863  1.00  0.00    -0.353 OA
HETATM   13  C44 UNK     0      57.676  28.198 237.165  1.00  0.00     0.210 C 
ENDBRANCH   8  12
BRANCH   9  14
HETATM   14  O4  UNK     0      58.897  31.397 235.396  1.00  0.00    -0.358 OA
HETATM   15  H99 UNK     0      59.881  31.318 235.302  1.00  0.00     0.217 HD
ENDBRANCH   9  14
ENDBRANCH   5   6
ENDBRANCH   2   4
ENDBRANCH   1   2
BRANCH   1  16
HETATM   16  C21 UNK     0      55.209  31.051 245.407  1.00  0.00     0.140 C 
HETATM   17  C17 UNK     0      55.333  29.420 245.190  1.00  0.00    -0.017 C 
HETATM   18  C9  UNK     0      55.274  28.566 246.644  1.00  0.00     0.005 C 
HETATM   19  C27 UNK     0      54.197  28.979 244.228  1.00  0.00     0.018 C 
HETATM   20  C26 UNK     0      56.677  29.108 244.505  1.00  0.00     0.018 C 
HETATM   21  C6  UNK     0      53.974  28.846 247.468  1.00  0.00    -0.027 A 
HETATM   22  C15 UNK     0      55.363  26.990 246.411  1.00  0.00     0.007 C 
HETATM   23  C5  UNK     0      53.578  27.822 248.703  1.00  0.00    -0.027 A 
HETATM   24  C7  UNK     0      52.826  28.113 247.190  1.00  0.00     0.021 A 
HETATM   25  C13 UNK     0      53.795  30.420 247.644  1.00  0.00     0.013 C 
HETATM   26  C8  UNK     0      53.901  26.280 248.502  1.00  0.00     0.004 C 
HETATM   27  C11 UNK     0      52.231  27.960 249.566  1.00  0.00     0.011 C 
HETATM   28  C10 UNK     0      53.881  25.459 249.941  1.00  0.00    -0.032 C 
HETATM   29  C14 UNK     0      55.298  26.157 247.768  1.00  0.00     0.007 C 
HETATM   30  C19 UNK     0      53.996  23.884 249.836  1.00  0.00     0.011 C 
HETATM   31  C23 UNK     0      55.034  26.008 250.841  1.00  0.00     0.016 C 
HETATM   32  C12 UNK     0      52.517  25.589 250.698  1.00  0.00    -0.032 C 
HETATM   33  C22 UNK     0      53.161  23.290 251.111  1.00  0.00     0.006 C 
HETATM   34  C18 UNK     0      52.746  24.531 251.967  1.00  0.00    -0.002 C 
HETATM   35  C16 UNK     0      52.284  27.132 250.967  1.00  0.00     0.011 C 
HETATM   36  C24 UNK     0      51.342  25.034 249.838  1.00  0.00     0.016 C 
HETATM   37  C20 UNK     0      53.821  31.238 246.197  1.00  0.00     0.034 C 
BRANCH  34  38
HETATM   38  C25 UNK     0      51.505  24.210 253.027  1.00  0.00    -0.014 C 
HETATM   39  C29 UNK     0      51.355  25.354 254.050  1.00  0.00     0.010 C 
BRANCH  38  40
HETATM   40  C28 UNK     0      51.687  22.854 253.871  1.00  0.00     0.008 C 
BRANCH  40  41
HETATM   41  C30 UNK     0      50.608  21.753 253.410  1.00  0.00     0.028 C 
BRANCH  41  42
HETATM   42  C32 UNK     0      49.887  22.098 252.082  1.00  0.00    -0.025 C 
HETATM   43  C34 UNK     0      49.600  21.160 251.158  1.00  0.00    -0.091 C 
HETATM   44  C36 UNK     0      48.880  21.541 249.883  1.00  0.00     0.042 C 
HETATM   45  C37 UNK     0      49.988  19.718 251.369  1.00  0.00     0.042 C 
ENDBRANCH  41  42
ENDBRANCH  40  41
ENDBRANCH  38  40
ENDBRANCH  34  38
ENDBRANCH   1  16
TORSDOF 10
ENDMDL
MODEL 7
REMARK VINA RESULT:    -8.174     19.387     23.603
REMARK INTER + INTRA:         -13.678
REMARK INTER:                 -12.319
REMARK INTRA:                  -1.359
REMARK UNBOUND:                -1.681
REMARK  10 active torsions:
REMARK  status: ('A' for Active; 'I' for Inactive)
REMARK    1  A    between atoms: O1_1  and  C31_31 
REMARK    2  A    between atoms: O1_1  and  C21_21 
REMARK    3  A    between atoms: O3_3  and  C41_41 
REMARK    4  A    between atoms: O4_4  and  C43_43 
REMARK    5  A    between atoms: C18_18  and  C25_25 
REMARK    6  A    between atoms: C25_25  and  C28_28 
REMARK    7  A    between atoms: C28_28  and  C30_30 
REMARK    8  A    between atoms: C30_30  and  C32_32 
REMARK    9  A    between atoms: C31_31  and  C33_33 
REMARK   10  A    between atoms: C35_35  and  C38_38 
ROOT
HETATM    1  O1  UNK     0      53.660  27.743 252.769  1.00  0.00    -0.312 OA
ENDROOT
BRANCH   1   2
HETATM    2  C31 UNK     0      52.240  27.396 253.386  1.00  0.00     0.283 C 
HETATM    3  O2  UNK     0      51.642  28.280 254.008  1.00  0.00    -0.260 OA
BRANCH   2   4
HETATM    4  C33 UNK     0      51.448  25.940 253.186  1.00  0.00     0.083 C 
HETATM    5  C35 UNK     0      52.064  24.798 252.693  1.00  0.00     0.017 C 
BRANCH   5   6
HETATM    6  C38 UNK     0      51.485  23.263 252.516  1.00  0.00    -0.033 A 
HETATM    7  C39 UNK     0      51.039  22.836 251.307  1.00  0.00     0.051 A 
HETATM    8  C41 UNK     0      50.528  21.401 251.091  1.00  0.00     0.102 A 
HETATM    9  C43 UNK     0      50.566  20.528 252.089  1.00  0.00     0.099 A 
HETATM   10  C42 UNK     0      51.049  20.977 253.419  1.00  0.00     0.040 A 
HETATM   11  C40 UNK     0      51.482  22.242 253.624  1.00  0.00     0.014 A 
BRANCH   8  12
HETATM   12  O3  UNK     0      50.045  20.932 249.837  1.00  0.00    -0.353 OA
HETATM   13  C44 UNK     0      48.755  21.447 249.520  1.00  0.00     0.210 C 
ENDBRANCH   8  12
BRANCH   9  14
HETATM   14  O4  UNK     0      50.102  19.194 251.857  1.00  0.00    -0.358 OA
HETATM   15  H99 UNK     0      49.576  18.853 252.624  1.00  0.00     0.217 HD
ENDBRANCH   9  14
ENDBRANCH   5   6
ENDBRANCH   2   4
ENDBRANCH   1   2
BRANCH   1  16
HETATM   16  C21 UNK     0      53.860  28.741 251.459  1.00  0.00     0.140 C 
HETATM   17  C17 UNK     0      53.470  27.976 250.050  1.00  0.00    -0.017 C 
HETATM   18  C9  UNK     0      53.589  28.992 248.708  1.00  0.00     0.005 C 
HETATM   19  C27 UNK     0      54.396  26.738 249.907  1.00  0.00     0.018 C 
HETATM   20  C26 UNK     0      52.018  27.471 250.142  1.00  0.00     0.018 C 
HETATM   21  C6  UNK     0      55.011  29.621 248.537  1.00  0.00    -0.027 A 
HETATM   22  C15 UNK     0      53.239  28.225 247.352  1.00  0.00     0.007 C 
HETATM   23  C5  UNK     0      55.406  30.315 247.091  1.00  0.00    -0.027 A 
HETATM   24  C7  UNK     0      55.993  28.902 247.865  1.00  0.00     0.021 A 
HETATM   25  C13 UNK     0      55.441  30.318 249.905  1.00  0.00     0.013 C 
HETATM   26  C8  UNK     0      54.836  29.631 245.775  1.00  0.00     0.004 C 
HETATM   27  C11 UNK     0      56.858  30.922 246.771  1.00  0.00     0.011 C 
HETATM   28  C10 UNK     0      54.919  30.651 244.472  1.00  0.00    -0.032 C 
HETATM   29  C14 UNK     0      53.355  29.157 246.065  1.00  0.00     0.007 C 
HETATM   30  C19 UNK     0      54.561  30.007 243.072  1.00  0.00     0.011 C 
HETATM   31  C23 UNK     0      53.986  31.874 244.739  1.00  0.00     0.016 C 
HETATM   32  C12 UNK     0      56.374  31.154 244.183  1.00  0.00    -0.032 C 
HETATM   33  C22 UNK     0      55.456  30.817 241.967  1.00  0.00     0.006 C 
HETATM   34  C18 UNK     0      56.156  31.976 242.749  1.00  0.00    -0.002 C 
HETATM   35  C16 UNK     0      56.864  31.917 245.483  1.00  0.00     0.011 C 
HETATM   36  C24 UNK     0      57.334  29.962 243.893  1.00  0.00     0.016 C 
HETATM   37  C20 UNK     0      55.350  29.292 251.208  1.00  0.00     0.034 C 
BRANCH  34  38
HETATM   38  C25 UNK     0      57.461  32.616 241.941  1.00  0.00    -0.014 C 
HETATM   39  C29 UNK     0      57.546  34.139 242.166  1.00  0.00     0.010 C 
BRANCH  38  40
HETATM   40  C28 UNK     0      57.437  32.383 240.350  1.00  0.00     0.008 C 
BRANCH  40  41
HETATM   41  C30 UNK     0      58.436  31.190 239.939  1.00  0.00     0.028 C 
BRANCH  41  42
HETATM   42  C32 UNK     0      57.735  29.994 239.248  1.00  0.00    -0.025 C 
HETATM   43  C34 UNK     0      58.092  29.565 238.021  1.00  0.00    -0.091 C 
HETATM   44  C36 UNK     0      57.390  28.383 237.391  1.00  0.00     0.042 C 
HETATM   45  C37 UNK     0      59.192  30.251 237.249  1.00  0.00     0.042 C 
ENDBRANCH  41  42
ENDBRANCH  40  41
ENDBRANCH  38  40
ENDBRANCH  34  38
ENDBRANCH   1  16
TORSDOF 10
ENDMDL
MODEL 8
REMARK VINA RESULT:    -8.038     20.169     22.661
REMARK INTER + INTRA:         -13.478
REMARK INTER:                 -11.402
REMARK INTRA:                  -2.076
REMARK UNBOUND:                -1.681
REMARK  10 active torsions:
REMARK  status: ('A' for Active; 'I' for Inactive)
REMARK    1  A    between atoms: O1_1  and  C31_31 
REMARK    2  A    between atoms: O1_1  and  C21_21 
REMARK    3  A    between atoms: O3_3  and  C41_41 
REMARK    4  A    between atoms: O4_4  and  C43_43 
REMARK    5  A    between atoms: C18_18  and  C25_25 
REMARK    6  A    between atoms: C25_25  and  C28_28 
REMARK    7  A    between atoms: C28_28  and  C30_30 
REMARK    8  A    between atoms: C30_30  and  C32_32 
REMARK    9  A    between atoms: C31_31  and  C33_33 
REMARK   10  A    between atoms: C35_35  and  C38_38 
ROOT
HETATM    1  O1  UNK     0      55.865  34.104 242.647  1.00  0.00    -0.312 OA
ENDROOT
BRANCH   1   2
HETATM    2  C31 UNK     0      57.100  34.779 241.915  1.00  0.00     0.283 C 
HETATM    3  O2  UNK     0      57.776  35.599 242.545  1.00  0.00    -0.260 OA
BRANCH   2   4
HETATM    4  C33 UNK     0      57.610  34.401 240.371  1.00  0.00     0.083 C 
HETATM    5  C35 UNK     0      57.896  33.108 239.957  1.00  0.00     0.017 C 
BRANCH   5   6
HETATM    6  C38 UNK     0      58.313  32.529 238.469  1.00  0.00    -0.033 A 
HETATM    7  C39 UNK     0      58.162  31.211 238.182  1.00  0.00     0.051 A 
HETATM    8  C41 UNK     0      58.501  30.638 236.795  1.00  0.00     0.102 A 
HETATM    9  C43 UNK     0      58.905  31.448 235.825  1.00  0.00     0.099 A 
HETATM   10  C42 UNK     0      59.077  32.892 236.120  1.00  0.00     0.040 A 
HETATM   11  C40 UNK     0      58.800  33.402 237.342  1.00  0.00     0.014 A 
BRANCH   8  12
HETATM   12  O3  UNK     0      58.362  29.258 236.472  1.00  0.00    -0.353 OA
HETATM   13  C44 UNK     0      57.718  28.517 237.503  1.00  0.00     0.210 C 
ENDBRANCH   8  12
BRANCH   9  14
HETATM   14  O4  UNK     0      59.196  30.892 234.539  1.00  0.00    -0.358 OA
HETATM   15  H99 UNK     0      59.630  30.004 234.616  1.00  0.00     0.217 HD
ENDBRANCH   9  14
ENDBRANCH   5   6
ENDBRANCH   2   4
ENDBRANCH   1   2
BRANCH   1  16
HETATM   16  C21 UNK     0      56.020  32.836 243.706  1.00  0.00     0.140 C 
HETATM   17  C17 UNK     0      54.819  31.724 243.498  1.00  0.00    -0.017 C 
HETATM   18  C9  UNK     0      54.996  30.384 244.508  1.00  0.00     0.005 C 
HETATM   19  C27 UNK     0      53.461  32.438 243.737  1.00  0.00     0.018 C 
HETATM   20  C26 UNK     0      54.842  31.231 242.039  1.00  0.00     0.018 C 
HETATM   21  C6  UNK     0      55.046  30.761 246.026  1.00  0.00    -0.027 A 
HETATM   22  C15 UNK     0      53.808  29.336 244.316  1.00  0.00     0.007 C 
HETATM   23  C5  UNK     0      54.829  29.570 247.150  1.00  0.00    -0.027 A 
HETATM   24  C7  UNK     0      53.855  30.916 246.725  1.00  0.00     0.021 A 
HETATM   25  C13 UNK     0      56.160  31.880 246.249  1.00  0.00     0.013 C 
HETATM   26  C8  UNK     0      53.790  28.421 246.801  1.00  0.00     0.004 C 
HETATM   27  C11 UNK     0      54.782  29.848 248.731  1.00  0.00     0.011 C 
HETATM   28  C10 UNK     0      53.998  27.094 247.771  1.00  0.00    -0.032 C 
HETATM   29  C14 UNK     0      53.941  28.064 245.267  1.00  0.00     0.007 C 
HETATM   30  C19 UNK     0      52.893  25.968 247.643  1.00  0.00     0.011 C 
HETATM   31  C23 UNK     0      55.404  26.481 247.478  1.00  0.00     0.016 C 
HETATM   32  C12 UNK     0      53.878  27.429 249.296  1.00  0.00    -0.032 C 
HETATM   33  C22 UNK     0      52.796  25.268 249.118  1.00  0.00     0.006 C 
HETATM   34  C18 UNK     0      53.943  25.905 249.970  1.00  0.00    -0.002 C 
HETATM   35  C16 UNK     0      54.998  28.502 249.621  1.00  0.00     0.011 C 
HETATM   36  C24 UNK     0      52.480  28.026 249.632  1.00  0.00     0.016 C 
HETATM   37  C20 UNK     0      55.948  33.205 245.269  1.00  0.00     0.034 C 
BRANCH  34  38
HETATM   38  C25 UNK     0      53.731  25.701 251.608  1.00  0.00    -0.014 C 
HETATM   39  C29 UNK     0      54.319  24.352 252.068  1.00  0.00     0.010 C 
BRANCH  38  40
HETATM   40  C28 UNK     0      52.197  25.726 252.087  1.00  0.00     0.008 C 
BRANCH  40  41
HETATM   41  C30 UNK     0      52.019  26.701 253.356  1.00  0.00     0.028 C 
BRANCH  41  42
HETATM   42  C32 UNK     0      52.123  28.208 253.010  1.00  0.00    -0.025 C 
HETATM   43  C34 UNK     0      53.248  28.917 253.228  1.00  0.00    -0.091 C 
HETATM   44  C36 UNK     0      53.309  30.382 252.860  1.00  0.00     0.042 C 
HETATM   45  C37 UNK     0      54.465  28.272 253.843  1.00  0.00     0.042 C 
ENDBRANCH  41  42
ENDBRANCH  40  41
ENDBRANCH  38  40
ENDBRANCH  34  38
ENDBRANCH   1  16
TORSDOF 10
ENDMDL
MODEL 9
REMARK VINA RESULT:    -7.889     19.549     23.518
REMARK INTER + INTRA:         -13.260
REMARK INTER:                 -11.728
REMARK INTRA:                  -1.532
REMARK UNBOUND:                -1.681
REMARK  10 active torsions:
REMARK  status: ('A' for Active; 'I' for Inactive)
REMARK    1  A    between atoms: O1_1  and  C31_31 
REMARK    2  A    between atoms: O1_1  and  C21_21 
REMARK    3  A    between atoms: O3_3  and  C41_41 
REMARK    4  A    between atoms: O4_4  and  C43_43 
REMARK    5  A    between atoms: C18_18  and  C25_25 
REMARK    6  A    between atoms: C25_25  and  C28_28 
REMARK    7  A    between atoms: C28_28  and  C30_30 
REMARK    8  A    between atoms: C30_30  and  C32_32 
REMARK    9  A    between atoms: C31_31  and  C33_33 
REMARK   10  A    between atoms: C35_35  and  C38_38 
ROOT
HETATM    1  O1  UNK     0      51.919  22.667 252.121  1.00  0.00    -0.312 OA
ENDROOT
BRANCH   1   2
HETATM    2  C31 UNK     0      51.195  23.460 253.289  1.00  0.00     0.283 C 
HETATM    3  O2  UNK     0      50.716  22.812 254.225  1.00  0.00    -0.260 OA
BRANCH   2   4
HETATM    4  C33 UNK     0      51.103  25.123 253.390  1.00  0.00     0.083 C 
HETATM    5  C35 UNK     0      52.216  25.952 253.376  1.00  0.00     0.017 C 
BRANCH   5   6
HETATM    6  C38 UNK     0      52.324  27.599 253.368  1.00  0.00    -0.033 A 
HETATM    7  C39 UNK     0      52.945  28.238 252.344  1.00  0.00     0.051 A 
HETATM    8  C41 UNK     0      53.033  29.772 252.278  1.00  0.00     0.102 A 
HETATM    9  C43 UNK     0      52.447  30.509 253.213  1.00  0.00     0.099 A 
HETATM   10  C42 UNK     0      51.764  29.828 254.341  1.00  0.00     0.040 A 
HETATM   11  C40 UNK     0      51.698  28.479 254.418  1.00  0.00     0.014 A 
BRANCH   8  12
HETATM   12  O3  UNK     0      53.688  30.465 251.222  1.00  0.00    -0.353 OA
HETATM   13  C44 UNK     0      55.075  30.668 251.477  1.00  0.00     0.210 C 
ENDBRANCH   8  12
BRANCH   9  14
HETATM   14  O4  UNK     0      52.528  31.935 253.118  1.00  0.00    -0.358 OA
HETATM   15  H99 UNK     0      51.809  32.303 252.545  1.00  0.00     0.217 HD
ENDBRANCH   9  14
ENDBRANCH   5   6
ENDBRANCH   2   4
ENDBRANCH   1   2
BRANCH   1  16
HETATM   16  C21 UNK     0      52.301  23.352 250.659  1.00  0.00     0.140 C 
HETATM   17  C17 UNK     0      53.917  23.666 250.541  1.00  0.00    -0.017 C 
HETATM   18  C9  UNK     0      54.347  24.291 249.034  1.00  0.00     0.005 C 
HETATM   19  C27 UNK     0      54.297  24.641 251.689  1.00  0.00     0.018 C 
HETATM   20  C26 UNK     0      54.697  22.356 250.758  1.00  0.00     0.018 C 
HETATM   21  C6  UNK     0      53.573  25.601 248.669  1.00  0.00    -0.027 A 
HETATM   22  C15 UNK     0      55.907  24.619 248.952  1.00  0.00     0.007 C 
HETATM   23  C5  UNK     0      54.138  26.541 247.433  1.00  0.00    -0.027 A 
HETATM   24  C7  UNK     0      54.058  26.822 249.123  1.00  0.00     0.021 A 
HETATM   25  C13 UNK     0      52.008  25.345 248.830  1.00  0.00     0.013 C 
HETATM   26  C8  UNK     0      55.713  26.647 247.261  1.00  0.00     0.004 C 
HETATM   27  C11 UNK     0      53.475  27.944 247.018  1.00  0.00     0.011 C 
HETATM   28  C10 UNK     0      56.126  27.223 245.764  1.00  0.00    -0.032 C 
HETATM   29  C14 UNK     0      56.341  25.223 247.543  1.00  0.00     0.007 C 
HETATM   30  C19 UNK     0      57.659  27.555 245.553  1.00  0.00     0.011 C 
HETATM   31  C23 UNK     0      55.663  26.189 244.689  1.00  0.00     0.016 C 
HETATM   32  C12 UNK     0      55.494  28.622 245.452  1.00  0.00    -0.032 C 
HETATM   33  C22 UNK     0      57.706  28.786 244.477  1.00  0.00     0.006 C 
HETATM   34  C18 UNK     0      56.230  28.998 244.004  1.00  0.00    -0.002 C 
HETATM   35  C16 UNK     0      53.922  28.446 245.535  1.00  0.00     0.011 C 
HETATM   36  C24 UNK     0      55.948  29.688 246.493  1.00  0.00     0.016 C 
HETATM   37  C20 UNK     0      51.601  24.763 250.333  1.00  0.00     0.034 C 
BRANCH  34  38
HETATM   38  C25 UNK     0      55.977  30.480 243.293  1.00  0.00    -0.014 C 
HETATM   39  C29 UNK     0      56.223  30.402 241.772  1.00  0.00     0.010 C 
BRANCH  38  40
HETATM   40  C28 UNK     0      56.919  31.656 243.855  1.00  0.00     0.008 C 
BRANCH  40  41
HETATM   41  C30 UNK     0      56.028  32.844 244.475  1.00  0.00     0.028 C 
BRANCH  41  42
HETATM   42  C32 UNK     0      54.752  32.356 245.208  1.00  0.00    -0.025 C 
HETATM   43  C34 UNK     0      53.526  32.461 244.658  1.00  0.00    -0.091 C 
HETATM   44  C36 UNK     0      52.311  31.956 245.404  1.00  0.00     0.042 C 
HETATM   45  C37 UNK     0      53.336  33.083 243.297  1.00  0.00     0.042 C 
ENDBRANCH  41  42
ENDBRANCH  40  41
ENDBRANCH  38  40
ENDBRANCH  34  38
ENDBRANCH   1  16
TORSDOF 10
ENDMDL
